<?xml version="1.0" encoding="UTF-8"?>

<!-- generated on 2022-07-20 23:28:09 by Eclipse SUMO GUI Version 1.14.0
<configuration xmlns:xsi="http://www.w3.org/2001/XMLSchema-instance" xsi:noNamespaceSchemaLocation="http://sumo.dlr.de/xsd/sumoConfiguration.xsd">

    <input>
        <net-file value="Roundabout2.net.xml"/>
        <route-files value="Roundabout2.rou.xml"/>
        <additional-files value="Roundabout2.add.xml"/>
    </input>

    <output>
        <tripinfo-output value="tripinfo2.xml"/>
    </output>

    <traci_server>
        <remote-port value="53091"/>
    </traci_server>

</configuration>
-->

<tripinfos xmlns:xsi="http://www.w3.org/2001/XMLSchema-instance" xsi:noNamespaceSchemaLocation="http://sumo.dlr.de/xsd/tripinfo_file.xsd">
    <tripinfo id="f_car3.0" depart="2.00" departLane="-E1_0" departPos="5.10" departSpeed="0.00" departDelay="1.60" arrival="25.00" arrivalLane="E3_0" arrivalPos="70.97" arrivalSpeed="13.08" duration="23.00" routeLength="204.20" waitingTime="0.00" waitingCount="0" stopTime="0.00" timeLoss="6.79" rerouteNo="1" devices="tripinfo_f_car3.0 routing_f_car3.0" vType="t_car" speedFactor="1.08" vaporized=""/>
    <tripinfo id="f_car1.0" depart="2.00" departLane="-E3_0" departPos="5.10" departSpeed="0.00" departDelay="1.80" arrival="28.00" arrivalLane="E1_0" arrivalPos="70.95" arrivalSpeed="13.03" duration="26.00" routeLength="203.33" waitingTime="0.00" waitingCount="0" stopTime="0.00" timeLoss="8.73" rerouteNo="1" devices="tripinfo_f_car1.0 routing_f_car1.0" vType="t_car" speedFactor="0.94" vaporized=""/>
    <tripinfo id="f_car11.0" depart="6.00" departLane="-E1_0" departPos="5.10" departSpeed="0.00" departDelay="3.60" arrival="28.00" arrivalLane="E0_0" arrivalPos="70.06" arrivalSpeed="13.32" duration="22.00" routeLength="167.21" waitingTime="1.00" waitingCount="1" stopTime="0.00" timeLoss="8.71" rerouteNo="1" devices="tripinfo_f_car11.0 routing_f_car11.0" vType="t_car" speedFactor="1.03" vaporized=""/>
    <tripinfo id="f_car9.0" depart="7.00" departLane="-E3_0" departPos="5.10" departSpeed="0.00" departDelay="4.80" arrival="32.00" arrivalLane="E2_0" arrivalPos="61.20" arrivalSpeed="10.89" duration="25.00" routeLength="171.82" waitingTime="0.00" waitingCount="0" stopTime="0.00" timeLoss="8.01" rerouteNo="1" devices="tripinfo_f_car9.0 routing_f_car9.0" vType="t_car" speedFactor="0.86" vaporized=""/>
    <tripinfo id="f_car5.0" depart="5.00" departLane="-E3_0" departPos="5.10" departSpeed="0.00" departDelay="3.80" arrival="34.00" arrivalLane="E0_0" arrivalPos="70.06" arrivalSpeed="10.69" duration="29.00" routeLength="236.83" waitingTime="0.00" waitingCount="0" stopTime="0.00" timeLoss="6.88" rerouteNo="1" devices="tripinfo_f_car5.0 routing_f_car5.0" vType="t_car" speedFactor="0.83" vaporized=""/>
    <tripinfo id="f_car7.0" depart="5.00" departLane="-E1_0" departPos="5.10" departSpeed="0.00" departDelay="3.60" arrival="35.00" arrivalLane="E2_0" arrivalPos="61.20" arrivalSpeed="11.24" duration="30.00" routeLength="241.50" waitingTime="0.00" waitingCount="0" stopTime="0.00" timeLoss="7.95" rerouteNo="1" devices="tripinfo_f_car7.0 routing_f_car7.0" vType="t_car" speedFactor="0.89" vaporized=""/>
    <tripinfo id="f_car2.0" depart="2.00" departLane="-E2_0" departPos="5.10" departSpeed="0.00" departDelay="1.70" arrival="36.00" arrivalLane="E0_0" arrivalPos="70.06" arrivalSpeed="12.91" duration="34.00" routeLength="205.62" waitingTime="4.00" waitingCount="1" stopTime="0.00" timeLoss="18.17" rerouteNo="1" devices="tripinfo_f_car2.0 routing_f_car2.0" vType="t_car" speedFactor="1.01" vaporized=""/>
    <tripinfo id="f_car0.0" depart="2.00" departLane="-E0_0" departPos="5.10" departSpeed="0.00" departDelay="1.90" arrival="37.00" arrivalLane="E2_0" arrivalPos="61.20" arrivalSpeed="13.55" duration="35.00" routeLength="204.78" waitingTime="8.00" waitingCount="1" stopTime="0.00" timeLoss="19.51" rerouteNo="1" devices="tripinfo_f_car0.0 routing_f_car0.0" vType="t_car" speedFactor="1.06" vaporized=""/>
    <tripinfo id="f_car10.0" depart="8.00" departLane="-E2_0" departPos="5.10" departSpeed="0.00" departDelay="5.70" arrival="38.00" arrivalLane="E1_0" arrivalPos="70.95" arrivalSpeed="12.91" duration="30.00" routeLength="172.12" waitingTime="2.00" waitingCount="2" stopTime="0.00" timeLoss="16.18" rerouteNo="1" devices="tripinfo_f_car10.0 routing_f_car10.0" vType="t_car" speedFactor="1.09" vaporized=""/>
    <tripinfo id="f_car8.0" depart="7.00" departLane="-E0_0" departPos="5.10" departSpeed="0.00" departDelay="4.90" arrival="39.00" arrivalLane="E3_0" arrivalPos="70.97" arrivalSpeed="11.86" duration="32.00" routeLength="167.48" waitingTime="4.00" waitingCount="1" stopTime="0.00" timeLoss="17.51" rerouteNo="1" devices="tripinfo_f_car8.0 routing_f_car8.0" vType="t_car" speedFactor="0.94" vaporized=""/>
    <tripinfo id="f_car4.0" depart="5.00" departLane="-E0_0" departPos="5.10" departSpeed="0.00" departDelay="3.90" arrival="42.00" arrivalLane="E1_0" arrivalPos="70.95" arrivalSpeed="13.96" duration="37.00" routeLength="236.29" waitingTime="6.00" waitingCount="1" stopTime="0.00" timeLoss="19.33" rerouteNo="1" devices="tripinfo_f_car4.0 routing_f_car4.0" vType="t_car" speedFactor="1.03" vaporized=""/>
    <tripinfo id="f_car6.0" depart="5.00" departLane="-E2_0" departPos="5.10" departSpeed="0.00" departDelay="3.70" arrival="43.00" arrivalLane="E3_0" arrivalPos="70.97" arrivalSpeed="13.52" duration="38.00" routeLength="242.61" waitingTime="2.00" waitingCount="1" stopTime="0.00" timeLoss="18.57" rerouteNo="1" devices="tripinfo_f_car6.0 routing_f_car6.0" vType="t_car" speedFactor="1.05" vaporized=""/>
    <tripinfo id="f_car3.1" depart="21.00" departLane="-E1_0" departPos="5.10" departSpeed="0.00" departDelay="0.60" arrival="46.00" arrivalLane="E3_0" arrivalPos="70.97" arrivalSpeed="12.86" duration="25.00" routeLength="204.20" waitingTime="0.00" waitingCount="0" stopTime="0.00" timeLoss="7.52" rerouteNo="1" devices="tripinfo_f_car3.1 routing_f_car3.1" vType="t_car" speedFactor="0.99" vaporized=""/>
    <tripinfo id="f_car11.1" depart="27.00" departLane="-E1_0" departPos="5.10" departSpeed="0.00" departDelay="1.67" arrival="54.00" arrivalLane="E0_0" arrivalPos="70.06" arrivalSpeed="10.96" duration="27.00" routeLength="167.21" waitingTime="0.00" waitingCount="0" stopTime="0.00" timeLoss="10.29" rerouteNo="1" devices="tripinfo_f_car11.1 routing_f_car11.1" vType="t_car" speedFactor="0.83" vaporized=""/>
    <tripinfo id="f_vip.0" depart="9.00" departLane="-E3_0" departPos="5.10" departSpeed="0.00" departDelay="4.00" arrival="56.00" arrivalLane="E1_0" arrivalPos="70.95" arrivalSpeed="5.79" duration="47.00" routeLength="203.33" waitingTime="6.00" waitingCount="1" stopTime="0.00" timeLoss="13.11" rerouteNo="1" devices="tripinfo_f_vip.0 routing_f_vip.0" vType="t_vip" speedFactor="1.05" vaporized=""/>
    <tripinfo id="f_car1.1" depart="22.00" departLane="-E3_0" departPos="5.10" departSpeed="0.00" departDelay="0.87" arrival="58.00" arrivalLane="E1_0" arrivalPos="70.95" arrivalSpeed="10.62" duration="36.00" routeLength="203.33" waitingTime="1.00" waitingCount="1" stopTime="0.00" timeLoss="18.47" rerouteNo="1" devices="tripinfo_f_car1.1 routing_f_car1.1" vType="t_car" speedFactor="0.93" vaporized=""/>
    <tripinfo id="f_car7.1" depart="24.00" departLane="-E1_0" departPos="5.10" departSpeed="0.00" departDelay="1.17" arrival="58.00" arrivalLane="E2_0" arrivalPos="61.20" arrivalSpeed="11.84" duration="34.00" routeLength="241.50" waitingTime="0.00" waitingCount="0" stopTime="0.00" timeLoss="13.43" rerouteNo="1" devices="tripinfo_f_car7.1 routing_f_car7.1" vType="t_car" speedFactor="0.94" vaporized=""/>
    <tripinfo id="f_car9.1" depart="26.00" departLane="-E3_0" departPos="5.10" departSpeed="0.00" departDelay="1.98" arrival="61.00" arrivalLane="E2_0" arrivalPos="61.20" arrivalSpeed="13.34" duration="35.00" routeLength="171.82" waitingTime="4.00" waitingCount="2" stopTime="0.00" timeLoss="21.43" rerouteNo="1" devices="tripinfo_f_car9.1 routing_f_car9.1" vType="t_car" speedFactor="0.97" vaporized=""/>
    <tripinfo id="f_car5.1" depart="25.00" departLane="-E3_0" departPos="5.10" departSpeed="0.00" departDelay="1.85" arrival="63.00" arrivalLane="E0_0" arrivalPos="70.06" arrivalSpeed="12.58" duration="38.00" routeLength="236.83" waitingTime="0.00" waitingCount="0" stopTime="0.00" timeLoss="18.03" rerouteNo="1" devices="tripinfo_f_car5.1 routing_f_car5.1" vType="t_car" speedFactor="0.94" vaporized=""/>
    <tripinfo id="f_car2.1" depart="21.00" departLane="-E2_0" departPos="5.10" departSpeed="0.00" departDelay="0.25" arrival="65.00" arrivalLane="E0_0" arrivalPos="70.06" arrivalSpeed="13.40" duration="44.00" routeLength="205.62" waitingTime="16.00" waitingCount="1" stopTime="0.00" timeLoss="27.98" rerouteNo="1" devices="tripinfo_f_car2.1 routing_f_car2.1" vType="t_car" speedFactor="1.12" vaporized=""/>
    <tripinfo id="f_car0.1" depart="23.00" departLane="-E0_0" departPos="5.10" departSpeed="0.00" departDelay="0.95" arrival="67.00" arrivalLane="E2_0" arrivalPos="61.20" arrivalSpeed="11.11" duration="44.00" routeLength="204.78" waitingTime="8.00" waitingCount="2" stopTime="0.00" timeLoss="26.00" rerouteNo="1" devices="tripinfo_f_car0.1 routing_f_car0.1" vType="t_car" speedFactor="0.88" vaporized=""/>
    <tripinfo id="f_car8.1" depart="29.00" departLane="-E0_0" departPos="5.10" departSpeed="0.00" departDelay="3.52" arrival="70.00" arrivalLane="E3_1" arrivalPos="70.97" arrivalSpeed="12.18" duration="41.00" routeLength="167.48" waitingTime="5.00" waitingCount="1" stopTime="0.00" timeLoss="25.66" rerouteNo="1" devices="tripinfo_f_car8.1 routing_f_car8.1" vType="t_car" speedFactor="0.89" vaporized=""/>
    <tripinfo id="f_car0.2" depart="45.00" departLane="-E0_0" departPos="5.10" departSpeed="0.00" departDelay="1.00" arrival="73.00" arrivalLane="E2_0" arrivalPos="61.20" arrivalSpeed="13.04" duration="28.00" routeLength="204.78" waitingTime="0.00" waitingCount="0" stopTime="0.00" timeLoss="12.52" rerouteNo="1" devices="tripinfo_f_car0.2 routing_f_car0.2" vType="t_car" speedFactor="1.13" vaporized=""/>
    <tripinfo id="f_car11.2" depart="49.00" departLane="-E1_0" departPos="5.10" departSpeed="0.00" departDelay="0.74" arrival="73.00" arrivalLane="E0_0" arrivalPos="70.06" arrivalSpeed="13.10" duration="24.00" routeLength="167.21" waitingTime="0.00" waitingCount="0" stopTime="0.00" timeLoss="10.50" rerouteNo="1" devices="tripinfo_f_car11.2 routing_f_car11.2" vType="t_car" speedFactor="0.97" vaporized=""/>
    <tripinfo id="f_car4.1" depart="26.00" departLane="-E0_0" departPos="5.10" departSpeed="0.00" departDelay="1.22" arrival="76.00" arrivalLane="E1_1" arrivalPos="70.95" arrivalSpeed="13.59" duration="50.00" routeLength="236.29" waitingTime="7.00" waitingCount="1" stopTime="0.00" timeLoss="31.32" rerouteNo="1" devices="tripinfo_f_car4.1 routing_f_car4.1" vType="t_car" speedFactor="1.02" vaporized=""/>
    <tripinfo id="f_car3.2" depart="41.00" departLane="-E1_0" departPos="5.10" departSpeed="0.00" departDelay="0.60" arrival="78.00" arrivalLane="E3_1" arrivalPos="70.97" arrivalSpeed="11.47" duration="37.00" routeLength="204.20" waitingTime="6.00" waitingCount="1" stopTime="0.00" timeLoss="18.66" rerouteNo="1" devices="tripinfo_f_car3.2 routing_f_car3.2" vType="t_car" speedFactor="0.87" vaporized=""/>
    <tripinfo id="f_car10.1" depart="24.00" departLane="-E2_0" departPos="5.10" departSpeed="0.00" departDelay="0.01" arrival="79.00" arrivalLane="E1_1" arrivalPos="70.95" arrivalSpeed="12.50" duration="55.00" routeLength="172.12" waitingTime="17.00" waitingCount="3" stopTime="0.00" timeLoss="41.83" rerouteNo="1" devices="tripinfo_f_car10.1 routing_f_car10.1" vType="t_car" speedFactor="1.16" vaporized=""/>
    <tripinfo id="f_car7.2" depart="45.00" departLane="-E1_0" departPos="5.10" departSpeed="0.00" departDelay="0.74" arrival="81.00" arrivalLane="E2_0" arrivalPos="61.20" arrivalSpeed="12.74" duration="36.00" routeLength="241.50" waitingTime="3.00" waitingCount="1" stopTime="0.00" timeLoss="14.88" rerouteNo="1" devices="tripinfo_f_car7.2 routing_f_car7.2" vType="t_car" speedFactor="0.93" vaporized=""/>
    <tripinfo id="f_car2.2" depart="42.00" departLane="-E2_0" departPos="5.10" departSpeed="0.00" departDelay="0.79" arrival="84.00" arrivalLane="E0_0" arrivalPos="70.06" arrivalSpeed="12.32" duration="42.00" routeLength="205.62" waitingTime="6.00" waitingCount="2" stopTime="0.00" timeLoss="24.13" rerouteNo="1" devices="tripinfo_f_car2.2 routing_f_car2.2" vType="t_car" speedFactor="0.92" vaporized=""/>
    <tripinfo id="f_car8.2" depart="52.00" departLane="-E0_0" departPos="5.10" departSpeed="0.00" departDelay="3.15" arrival="84.00" arrivalLane="E3_1" arrivalPos="70.97" arrivalSpeed="12.91" duration="32.00" routeLength="167.48" waitingTime="4.00" waitingCount="1" stopTime="0.00" timeLoss="19.31" rerouteNo="1" devices="tripinfo_f_car8.2 routing_f_car8.2" vType="t_car" speedFactor="1.02" vaporized=""/>
    <tripinfo id="f_car6.1" depart="25.00" departLane="-E2_0" departPos="5.10" departSpeed="0.00" departDelay="0.62" arrival="86.00" arrivalLane="E3_1" arrivalPos="70.97" arrivalSpeed="12.99" duration="61.00" routeLength="242.61" waitingTime="14.00" waitingCount="3" stopTime="0.00" timeLoss="41.59" rerouteNo="1" devices="tripinfo_f_car6.1 routing_f_car6.1" vType="t_car" speedFactor="1.01" vaporized=""/>
    <tripinfo id="f_car4.2" depart="49.00" departLane="-E0_0" departPos="5.10" departSpeed="0.00" departDelay="0.53" arrival="89.00" arrivalLane="E1_1" arrivalPos="70.95" arrivalSpeed="12.82" duration="40.00" routeLength="236.29" waitingTime="4.00" waitingCount="1" stopTime="0.00" timeLoss="21.39" rerouteNo="1" devices="tripinfo_f_car4.2 routing_f_car4.2" vType="t_car" speedFactor="0.99" vaporized=""/>
    <tripinfo id="f_car3.3" depart="61.00" departLane="-E1_0" departPos="5.10" departSpeed="0.00" departDelay="0.60" arrival="91.00" arrivalLane="E3_1" arrivalPos="70.97" arrivalSpeed="13.48" duration="30.00" routeLength="204.20" waitingTime="2.00" waitingCount="1" stopTime="0.00" timeLoss="13.79" rerouteNo="1" devices="tripinfo_f_car3.3 routing_f_car3.3" vType="t_car" speedFactor="1.18" vaporized=""/>
    <tripinfo id="f_car0.3" depart="66.00" departLane="-E0_0" departPos="5.10" departSpeed="0.00" departDelay="0.05" arrival="92.00" arrivalLane="E2_0" arrivalPos="61.20" arrivalSpeed="13.34" duration="26.00" routeLength="204.78" waitingTime="0.00" waitingCount="0" stopTime="0.00" timeLoss="10.32" rerouteNo="1" devices="tripinfo_f_car0.3 routing_f_car0.3" vType="t_car" speedFactor="1.03" vaporized=""/>
    <tripinfo id="f_car5.2" depart="46.00" departLane="-E3_0" departPos="5.10" departSpeed="0.00" departDelay="0.90" arrival="94.00" arrivalLane="E0_0" arrivalPos="70.06" arrivalSpeed="13.17" duration="48.00" routeLength="236.83" waitingTime="18.00" waitingCount="1" stopTime="0.00" timeLoss="29.80" rerouteNo="1" devices="tripinfo_f_car5.2 routing_f_car5.2" vType="t_car" speedFactor="1.18" vaporized=""/>
    <tripinfo id="f_car1.2" depart="43.00" departLane="-E3_0" departPos="5.10" departSpeed="0.00" departDelay="0.94" arrival="95.00" arrivalLane="E1_1" arrivalPos="70.95" arrivalSpeed="11.10" duration="52.00" routeLength="203.33" waitingTime="20.00" waitingCount="1" stopTime="0.00" timeLoss="34.90" rerouteNo="1" devices="tripinfo_f_car1.2 routing_f_car1.2" vType="t_car" speedFactor="0.95" vaporized=""/>
    <tripinfo id="f_car10.2" depart="46.00" departLane="-E2_0" departPos="5.10" departSpeed="0.00" departDelay="0.33" arrival="96.00" arrivalLane="E1_1" arrivalPos="70.95" arrivalSpeed="12.58" duration="50.00" routeLength="172.12" waitingTime="10.00" waitingCount="2" stopTime="0.00" timeLoss="36.65" rerouteNo="1" devices="tripinfo_f_car10.2 routing_f_car10.2" vType="t_car" speedFactor="1.01" vaporized=""/>
    <tripinfo id="f_car7.3" depart="66.00" departLane="-E1_0" departPos="5.10" departSpeed="0.00" departDelay="0.31" arrival="97.00" arrivalLane="E2_0" arrivalPos="61.20" arrivalSpeed="12.15" duration="31.00" routeLength="241.50" waitingTime="0.00" waitingCount="0" stopTime="0.00" timeLoss="11.13" rerouteNo="1" devices="tripinfo_f_car7.3 routing_f_car7.3" vType="t_car" speedFactor="0.96" vaporized=""/>
    <tripinfo id="f_car11.3" depart="72.00" departLane="-E1_0" departPos="5.10" departSpeed="0.00" departDelay="0.81" arrival="98.00" arrivalLane="E0_0" arrivalPos="70.06" arrivalSpeed="13.28" duration="26.00" routeLength="167.21" waitingTime="3.00" waitingCount="1" stopTime="0.00" timeLoss="12.56" rerouteNo="1" devices="tripinfo_f_car11.3 routing_f_car11.3" vType="t_car" speedFactor="1.00" vaporized=""/>
    <tripinfo id="f_car8.3" depart="76.00" departLane="-E0_0" departPos="5.10" departSpeed="0.00" departDelay="3.77" arrival="100.00" arrivalLane="E3_1" arrivalPos="70.97" arrivalSpeed="11.62" duration="24.00" routeLength="167.48" waitingTime="0.00" waitingCount="0" stopTime="0.00" timeLoss="8.98" rerouteNo="1" devices="tripinfo_f_car8.3 routing_f_car8.3" vType="t_car" speedFactor="0.88" vaporized=""/>
    <tripinfo id="f_car9.2" depart="49.00" departLane="-E3_0" departPos="5.10" departSpeed="0.00" departDelay="3.16" arrival="102.00" arrivalLane="E2_0" arrivalPos="61.20" arrivalSpeed="13.91" duration="53.00" routeLength="171.82" waitingTime="25.00" waitingCount="2" stopTime="0.00" timeLoss="39.56" rerouteNo="1" devices="tripinfo_f_car9.2 routing_f_car9.2" vType="t_car" speedFactor="1.15" vaporized=""/>
    <tripinfo id="f_car2.3" depart="62.00" departLane="-E2_0" departPos="5.10" departSpeed="0.00" departDelay="0.34" arrival="102.00" arrivalLane="E0_0" arrivalPos="70.06" arrivalSpeed="13.52" duration="40.00" routeLength="205.62" waitingTime="7.00" waitingCount="1" stopTime="0.00" timeLoss="24.39" rerouteNo="1" devices="tripinfo_f_car2.3 routing_f_car2.3" vType="t_car" speedFactor="1.10" vaporized=""/>
    <tripinfo id="f_car6.2" depart="49.00" departLane="-E2_0" departPos="5.10" departSpeed="0.00" departDelay="1.55" arrival="104.00" arrivalLane="E3_1" arrivalPos="70.97" arrivalSpeed="13.79" duration="55.00" routeLength="242.61" waitingTime="10.00" waitingCount="2" stopTime="0.00" timeLoss="35.99" rerouteNo="1" devices="tripinfo_f_car6.2 routing_f_car6.2" vType="t_car" speedFactor="1.17" vaporized=""/>
    <tripinfo id="f_car4.3" depart="73.00" departLane="-E0_0" departPos="5.10" departSpeed="0.00" departDelay="0.85" arrival="104.00" arrivalLane="E1_1" arrivalPos="70.95" arrivalSpeed="12.38" duration="31.00" routeLength="236.29" waitingTime="1.00" waitingCount="1" stopTime="0.00" timeLoss="10.58" rerouteNo="1" devices="tripinfo_f_car4.3 routing_f_car4.3" vType="t_car" speedFactor="0.90" vaporized=""/>
    <tripinfo id="f_car10.3" depart="68.00" departLane="-E2_0" departPos="5.10" departSpeed="0.00" departDelay="0.64" arrival="106.00" arrivalLane="E1_1" arrivalPos="70.95" arrivalSpeed="13.33" duration="38.00" routeLength="172.12" waitingTime="8.00" waitingCount="2" stopTime="0.00" timeLoss="24.53" rerouteNo="1" devices="tripinfo_f_car10.3 routing_f_car10.3" vType="t_car" speedFactor="1.04" vaporized=""/>
    <tripinfo id="f_car1.3" depart="63.00" departLane="-E3_0" departPos="5.10" departSpeed="0.00" departDelay="0.01" arrival="110.00" arrivalLane="E1_1" arrivalPos="70.95" arrivalSpeed="12.24" duration="47.00" routeLength="203.33" waitingTime="14.00" waitingCount="2" stopTime="0.00" timeLoss="28.88" rerouteNo="1" devices="tripinfo_f_car1.3 routing_f_car1.3" vType="t_car" speedFactor="0.90" vaporized=""/>
    <tripinfo id="f_car9.3" depart="71.00" departLane="-E3_0" departPos="5.10" departSpeed="0.00" departDelay="3.35" arrival="110.00" arrivalLane="E2_0" arrivalPos="61.20" arrivalSpeed="13.32" duration="39.00" routeLength="171.82" waitingTime="6.00" waitingCount="2" stopTime="0.00" timeLoss="24.80" rerouteNo="1" devices="tripinfo_f_car9.3 routing_f_car9.3" vType="t_car" speedFactor="1.04" vaporized=""/>
    <tripinfo id="f_car3.4" depart="81.00" departLane="-E1_0" departPos="5.10" departSpeed="0.00" departDelay="0.60" arrival="113.00" arrivalLane="E3_0" arrivalPos="70.97" arrivalSpeed="11.52" duration="32.00" routeLength="204.20" waitingTime="2.00" waitingCount="1" stopTime="0.00" timeLoss="12.53" rerouteNo="1" devices="tripinfo_f_car3.4 routing_f_car3.4" vType="t_car" speedFactor="0.85" vaporized=""/>
    <tripinfo id="f_car5.3" depart="68.00" departLane="-E3_0" departPos="5.10" departSpeed="0.00" departDelay="0.95" arrival="114.00" arrivalLane="E0_0" arrivalPos="70.06" arrivalSpeed="13.25" duration="46.00" routeLength="236.83" waitingTime="7.00" waitingCount="1" stopTime="0.00" timeLoss="27.20" rerouteNo="1" devices="tripinfo_f_car5.3 routing_f_car5.3" vType="t_car" speedFactor="1.09" vaporized=""/>
    <tripinfo id="f_car1.4" depart="84.00" departLane="-E3_0" departPos="5.10" departSpeed="0.00" departDelay="0.08" arrival="117.00" arrivalLane="E1_0" arrivalPos="70.95" arrivalSpeed="9.78" duration="33.00" routeLength="203.33" waitingTime="2.00" waitingCount="1" stopTime="0.00" timeLoss="17.42" rerouteNo="1" devices="tripinfo_f_car1.4 routing_f_car1.4" vType="t_car" speedFactor="1.17" vaporized=""/>
    <tripinfo id="f_car7.4" depart="88.00" departLane="-E1_0" departPos="5.10" departSpeed="0.00" departDelay="0.88" arrival="118.00" arrivalLane="E2_0" arrivalPos="61.20" arrivalSpeed="12.92" duration="30.00" routeLength="241.50" waitingTime="0.00" waitingCount="0" stopTime="0.00" timeLoss="11.13" rerouteNo="1" devices="tripinfo_f_car7.4 routing_f_car7.4" vType="t_car" speedFactor="1.10" vaporized=""/>
    <tripinfo id="f_car11.4" depart="95.00" departLane="-E1_0" departPos="5.10" departSpeed="0.00" departDelay="0.88" arrival="118.00" arrivalLane="E0_0" arrivalPos="70.06" arrivalSpeed="13.15" duration="23.00" routeLength="167.21" waitingTime="1.00" waitingCount="1" stopTime="0.00" timeLoss="9.49" rerouteNo="1" devices="tripinfo_f_car11.4 routing_f_car11.4" vType="t_car" speedFactor="1.02" vaporized=""/>
    <tripinfo id="f_car0.4" depart="88.00" departLane="-E0_0" departPos="5.10" departSpeed="0.00" departDelay="0.10" arrival="120.00" arrivalLane="E2_0" arrivalPos="61.20" arrivalSpeed="12.93" duration="32.00" routeLength="204.78" waitingTime="3.00" waitingCount="1" stopTime="0.00" timeLoss="16.72" rerouteNo="1" devices="tripinfo_f_car0.4 routing_f_car0.4" vType="t_car" speedFactor="1.02" vaporized=""/>
    <tripinfo id="f_car8.4" depart="99.00" departLane="-E0_0" departPos="5.10" departSpeed="0.00" departDelay="3.39" arrival="120.00" arrivalLane="E3_0" arrivalPos="70.97" arrivalSpeed="12.90" duration="21.00" routeLength="167.48" waitingTime="0.00" waitingCount="0" stopTime="0.00" timeLoss="8.31" rerouteNo="1" devices="tripinfo_f_car8.4 routing_f_car8.4" vType="t_car" speedFactor="1.08" vaporized=""/>
    <tripinfo id="f_car6.3" depart="71.00" departLane="-E2_0" departPos="5.10" departSpeed="0.00" departDelay="0.47" arrival="124.00" arrivalLane="E3_0" arrivalPos="70.97" arrivalSpeed="12.72" duration="53.00" routeLength="242.61" waitingTime="12.00" waitingCount="2" stopTime="0.00" timeLoss="34.50" rerouteNo="1" devices="tripinfo_f_car6.3 routing_f_car6.3" vType="t_car" speedFactor="1.09" vaporized=""/>
    <tripinfo id="f_car2.4" depart="83.00" departLane="-E2_0" departPos="5.10" departSpeed="0.00" departDelay="0.88" arrival="126.00" arrivalLane="E0_0" arrivalPos="70.06" arrivalSpeed="10.66" duration="43.00" routeLength="205.62" waitingTime="6.00" waitingCount="1" stopTime="0.00" timeLoss="24.02" rerouteNo="1" devices="tripinfo_f_car2.4 routing_f_car2.4" vType="t_car" speedFactor="0.85" vaporized=""/>
    <tripinfo id="f_car9.4" depart="93.00" departLane="-E3_0" departPos="5.10" departSpeed="0.00" departDelay="3.53" arrival="127.00" arrivalLane="E2_0" arrivalPos="61.20" arrivalSpeed="13.21" duration="34.00" routeLength="171.82" waitingTime="7.00" waitingCount="1" stopTime="0.00" timeLoss="20.15" rerouteNo="1" devices="tripinfo_f_car9.4 routing_f_car9.4" vType="t_car" speedFactor="1.00" vaporized=""/>
    <tripinfo id="f_car4.4" depart="96.00" departLane="-E0_0" departPos="5.10" departSpeed="0.00" departDelay="0.16" arrival="127.00" arrivalLane="E1_0" arrivalPos="70.95" arrivalSpeed="12.83" duration="31.00" routeLength="236.29" waitingTime="0.00" waitingCount="0" stopTime="0.00" timeLoss="11.98" rerouteNo="1" devices="tripinfo_f_car4.4 routing_f_car4.4" vType="t_car" speedFactor="0.97" vaporized=""/>
    <tripinfo id="f_car5.4" depart="90.00" departLane="-E3_0" departPos="5.10" departSpeed="0.00" departDelay="1.00" arrival="131.00" arrivalLane="E0_0" arrivalPos="70.06" arrivalSpeed="12.64" duration="41.00" routeLength="236.83" waitingTime="7.00" waitingCount="1" stopTime="0.00" timeLoss="22.89" rerouteNo="1" devices="tripinfo_f_car5.4 routing_f_car5.4" vType="t_car" speedFactor="1.00" vaporized=""/>
    <tripinfo id="f_car3.5" depart="103.00" departLane="-E1_0" departPos="5.10" departSpeed="0.00" departDelay="2.60" arrival="131.00" arrivalLane="E3_0" arrivalPos="70.97" arrivalSpeed="13.05" duration="28.00" routeLength="204.20" waitingTime="0.00" waitingCount="0" stopTime="0.00" timeLoss="11.62" rerouteNo="1" devices="tripinfo_f_car3.5 routing_f_car3.5" vType="t_car" speedFactor="1.12" vaporized=""/>
    <tripinfo id="f_car10.4" depart="90.00" departLane="-E2_0" departPos="5.10" departSpeed="0.00" departDelay="0.95" arrival="132.00" arrivalLane="E1_0" arrivalPos="70.95" arrivalSpeed="12.20" duration="42.00" routeLength="172.12" waitingTime="11.00" waitingCount="2" stopTime="0.00" timeLoss="26.96" rerouteNo="1" devices="tripinfo_f_car10.4 routing_f_car10.4" vType="t_car" speedFactor="0.90" vaporized=""/>
    <tripinfo id="f_car1.5" depart="105.00" departLane="-E3_0" departPos="5.10" departSpeed="0.00" departDelay="0.15" arrival="134.00" arrivalLane="E1_0" arrivalPos="70.95" arrivalSpeed="13.04" duration="29.00" routeLength="203.33" waitingTime="2.00" waitingCount="1" stopTime="0.00" timeLoss="12.56" rerouteNo="1" devices="tripinfo_f_car1.5 routing_f_car1.5" vType="t_car" speedFactor="0.99" vaporized=""/>
    <tripinfo id="f_car9.5" depart="112.00" departLane="-E3_0" departPos="5.10" departSpeed="0.00" departDelay="0.71" arrival="135.00" arrivalLane="E2_0" arrivalPos="61.20" arrivalSpeed="13.49" duration="23.00" routeLength="171.82" waitingTime="1.00" waitingCount="1" stopTime="0.00" timeLoss="9.99" rerouteNo="1" devices="tripinfo_f_car9.5 routing_f_car9.5" vType="t_car" speedFactor="1.04" vaporized=""/>
    <tripinfo id="f_car0.5" depart="110.00" departLane="-E0_0" departPos="5.10" departSpeed="0.00" departDelay="0.15" arrival="139.00" arrivalLane="E2_0" arrivalPos="61.20" arrivalSpeed="11.18" duration="29.00" routeLength="204.78" waitingTime="2.00" waitingCount="1" stopTime="0.00" timeLoss="11.47" rerouteNo="1" devices="tripinfo_f_car0.5 routing_f_car0.5" vType="t_car" speedFactor="0.88" vaporized=""/>
    <tripinfo id="f_car5.5" depart="111.00" departLane="-E3_0" departPos="5.10" departSpeed="0.00" departDelay="0.05" arrival="140.00" arrivalLane="E0_0" arrivalPos="70.06" arrivalSpeed="12.00" duration="29.00" routeLength="236.83" waitingTime="0.00" waitingCount="0" stopTime="0.00" timeLoss="8.69" rerouteNo="1" devices="tripinfo_f_car5.5 routing_f_car5.5" vType="t_car" speedFactor="0.91" vaporized=""/>
    <tripinfo id="f_car7.5" depart="109.00" departLane="-E1_0" departPos="5.10" departSpeed="0.00" departDelay="0.46" arrival="143.00" arrivalLane="E2_0" arrivalPos="61.20" arrivalSpeed="11.79" duration="34.00" routeLength="241.50" waitingTime="0.00" waitingCount="0" stopTime="0.00" timeLoss="13.28" rerouteNo="1" devices="tripinfo_f_car7.5 routing_f_car7.5" vType="t_car" speedFactor="0.94" vaporized=""/>
    <tripinfo id="f_car2.5" depart="103.00" departLane="-E2_0" departPos="5.10" departSpeed="0.00" departDelay="0.43" arrival="144.00" arrivalLane="E0_0" arrivalPos="70.06" arrivalSpeed="13.73" duration="41.00" routeLength="205.62" waitingTime="4.00" waitingCount="2" stopTime="0.00" timeLoss="24.69" rerouteNo="1" devices="tripinfo_f_car2.5 routing_f_car2.5" vType="t_car" speedFactor="1.02" vaporized=""/>
    <tripinfo id="f_car6.4" depart="94.00" departLane="-E2_0" departPos="5.10" departSpeed="0.00" departDelay="0.39" arrival="145.00" arrivalLane="E3_0" arrivalPos="70.97" arrivalSpeed="13.53" duration="51.00" routeLength="242.61" waitingTime="11.00" waitingCount="3" stopTime="0.00" timeLoss="32.30" rerouteNo="1" devices="tripinfo_f_car6.4 routing_f_car6.4" vType="t_car" speedFactor="1.14" vaporized=""/>
    <tripinfo id="f_car10.5" depart="111.00" departLane="-E2_0" departPos="5.10" departSpeed="0.00" departDelay="0.27" arrival="145.00" arrivalLane="E1_0" arrivalPos="70.95" arrivalSpeed="12.44" duration="34.00" routeLength="172.12" waitingTime="1.00" waitingCount="1" stopTime="0.00" timeLoss="18.31" rerouteNo="1" devices="tripinfo_f_car10.5 routing_f_car10.5" vType="t_car" speedFactor="0.91" vaporized=""/>
    <tripinfo id="f_car11.5" depart="118.00" departLane="-E1_0" departPos="5.10" departSpeed="0.00" departDelay="0.95" arrival="147.00" arrivalLane="E0_0" arrivalPos="70.06" arrivalSpeed="13.56" duration="29.00" routeLength="167.21" waitingTime="6.00" waitingCount="1" stopTime="0.00" timeLoss="15.38" rerouteNo="1" devices="tripinfo_f_car11.5 routing_f_car11.5" vType="t_car" speedFactor="1.02" vaporized=""/>
    <tripinfo id="f_car8.5" depart="119.00" departLane="-E0_0" departPos="5.10" departSpeed="0.00" departDelay="0.02" arrival="150.00" arrivalLane="E3_0" arrivalPos="70.97" arrivalSpeed="12.63" duration="31.00" routeLength="167.48" waitingTime="7.00" waitingCount="1" stopTime="0.00" timeLoss="17.14" rerouteNo="1" devices="tripinfo_f_car8.5 routing_f_car8.5" vType="t_car" speedFactor="0.97" vaporized=""/>