<?xml version="1.0" encoding="UTF-8"?>

<!-- generated on 2022-07-24 10:01:19 by Eclipse SUMO GUI Version 1.14.0
<configuration xmlns:xsi="http://www.w3.org/2001/XMLSchema-instance" xsi:noNamespaceSchemaLocation="http://sumo.dlr.de/xsd/sumoConfiguration.xsd">

    <input>
        <net-file value="Roundabout.net.xml"/>
        <route-files value="Roundabout.rou.xml"/>
        <additional-files value="Roundabout.add.xml"/>
    </input>

    <output>
        <tripinfo-output value="tripinfo.xml"/>
    </output>

    <traci_server>
        <remote-port value="52651"/>
    </traci_server>

</configuration>
-->

<tripinfos xmlns:xsi="http://www.w3.org/2001/XMLSchema-instance" xsi:noNamespaceSchemaLocation="http://sumo.dlr.de/xsd/tripinfo_file.xsd">
    <tripinfo id="f_car1.0" depart="1.00" departLane="-E3_0" departPos="5.10" departSpeed="0.00" departDelay="0.80" arrival="36.00" arrivalLane="E1_0" arrivalPos="69.11" arrivalSpeed="12.63" duration="35.00" routeLength="205.86" waitingTime="1.00" waitingCount="1" stopTime="0.00" timeLoss="16.92" rerouteNo="1" devices="tripinfo_f_car1.0 routing_f_car1.0" vType="t_car" speedFactor="0.94" vaporized=""/>
    <tripinfo id="f_car3.0" depart="1.00" departLane="-E1_0" departPos="5.10" departSpeed="0.00" departDelay="0.60" arrival="39.00" arrivalLane="E3_0" arrivalPos="69.07" arrivalSpeed="13.57" duration="38.00" routeLength="205.81" waitingTime="2.00" waitingCount="2" stopTime="0.00" timeLoss="22.28" rerouteNo="1" devices="tripinfo_f_car3.0 routing_f_car3.0" vType="t_car" speedFactor="1.08" vaporized=""/>
    <tripinfo id="f_car11.0" depart="7.00" departLane="-E1_0" departPos="5.10" departSpeed="0.00" departDelay="4.60" arrival="39.00" arrivalLane="E0_0" arrivalPos="68.50" arrivalSpeed="12.84" duration="32.00" routeLength="170.49" waitingTime="2.00" waitingCount="2" stopTime="0.00" timeLoss="18.67" rerouteNo="1" devices="tripinfo_f_car11.0 routing_f_car11.0" vType="t_car" speedFactor="1.03" vaporized=""/>
    <tripinfo id="f_car0.0" depart="1.00" departLane="-E0_0" departPos="5.10" departSpeed="0.00" departDelay="0.90" arrival="42.00" arrivalLane="E2_0" arrivalPos="168.56" arrivalSpeed="12.87" duration="41.00" routeLength="305.12" waitingTime="1.00" waitingCount="1" stopTime="0.00" timeLoss="17.32" rerouteNo="1" devices="tripinfo_f_car0.0 routing_f_car0.0" vType="t_car" speedFactor="1.06" vaporized=""/>
    <tripinfo id="f_car4.0" depart="4.00" departLane="-E0_0" departPos="5.10" departSpeed="0.00" departDelay="2.90" arrival="43.00" arrivalLane="E1_0" arrivalPos="69.11" arrivalSpeed="14.00" duration="39.00" routeLength="240.07" waitingTime="7.00" waitingCount="2" stopTime="0.00" timeLoss="20.22" rerouteNo="1" devices="tripinfo_f_car4.0 routing_f_car4.0" vType="t_car" speedFactor="1.03" vaporized=""/>
    <tripinfo id="f_car8.0" depart="7.00" departLane="-E0_0" departPos="5.10" departSpeed="0.00" departDelay="4.90" arrival="53.00" arrivalLane="E3_0" arrivalPos="69.07" arrivalSpeed="13.03" duration="46.00" routeLength="171.04" waitingTime="11.00" waitingCount="4" stopTime="0.00" timeLoss="30.71" rerouteNo="1" devices="tripinfo_f_car8.0 routing_f_car8.0" vType="t_car" speedFactor="0.94" vaporized=""/>
    <tripinfo id="f_car7.0" depart="4.00" departLane="-E1_0" departPos="5.10" departSpeed="0.00" departDelay="2.60" arrival="55.00" arrivalLane="E2_0" arrivalPos="168.56" arrivalSpeed="12.31" duration="51.00" routeLength="339.89" waitingTime="2.00" waitingCount="2" stopTime="0.00" timeLoss="21.76" rerouteNo="1" devices="tripinfo_f_car7.0 routing_f_car7.0" vType="t_car" speedFactor="0.89" vaporized=""/>
    <tripinfo id="f_car5.0" depart="4.00" departLane="-E3_0" departPos="5.10" departSpeed="0.00" departDelay="2.80" arrival="57.00" arrivalLane="E0_0" arrivalPos="68.50" arrivalSpeed="11.54" duration="53.00" routeLength="239.96" waitingTime="22.00" waitingCount="1" stopTime="0.00" timeLoss="30.37" rerouteNo="1" devices="tripinfo_f_car5.0 routing_f_car5.0" vType="t_car" speedFactor="0.83" vaporized=""/>
    <tripinfo id="f_car2.0" depart="1.00" departLane="-E2_0" departPos="5.10" departSpeed="0.00" departDelay="0.70" arrival="60.00" arrivalLane="E0_0" arrivalPos="68.50" arrivalSpeed="14.00" duration="59.00" routeLength="305.21" waitingTime="24.00" waitingCount="1" stopTime="0.00" timeLoss="36.12" rerouteNo="1" devices="tripinfo_f_car2.0 routing_f_car2.0" vType="t_car" speedFactor="1.01" vaporized=""/>
    <tripinfo id="f_car9.0" depart="7.00" departLane="-E3_0" departPos="5.10" departSpeed="0.00" departDelay="4.80" arrival="61.00" arrivalLane="E2_0" arrivalPos="168.56" arrivalSpeed="11.90" duration="54.00" routeLength="270.91" waitingTime="20.00" waitingCount="1" stopTime="0.00" timeLoss="29.11" rerouteNo="1" devices="tripinfo_f_car9.0 routing_f_car9.0" vType="t_car" speedFactor="0.86" vaporized=""/>
    <tripinfo id="f_vip.0" depart="10.00" departLane="-E3_0" departPos="5.10" departSpeed="0.00" departDelay="5.00" arrival="68.00" arrivalLane="E1_0" arrivalPos="69.11" arrivalSpeed="5.41" duration="58.00" routeLength="205.86" waitingTime="15.00" waitingCount="1" stopTime="0.00" timeLoss="23.66" rerouteNo="1" devices="tripinfo_f_vip.0 routing_f_vip.0" vType="t_vip" speedFactor="1.05" vaporized=""/>
    <tripinfo id="f_car6.0" depart="4.00" departLane="-E2_0" departPos="5.10" departSpeed="0.00" departDelay="2.70" arrival="70.00" arrivalLane="E3_0" arrivalPos="69.07" arrivalSpeed="14.00" duration="66.00" routeLength="340.53" waitingTime="27.00" waitingCount="1" stopTime="0.00" timeLoss="38.88" rerouteNo="1" devices="tripinfo_f_car6.0 routing_f_car6.0" vType="t_car" speedFactor="1.05" vaporized=""/>
    <tripinfo id="f_car10.0" depart="7.00" departLane="-E2_0" departPos="5.10" departSpeed="0.00" departDelay="4.70" arrival="70.00" arrivalLane="E1_0" arrivalPos="69.11" arrivalSpeed="10.25" duration="63.00" routeLength="271.11" waitingTime="25.00" waitingCount="1" stopTime="0.00" timeLoss="41.46" rerouteNo="1" devices="tripinfo_f_car10.0 routing_f_car10.0" vType="t_car" speedFactor="1.09" vaporized=""/>
    <tripinfo id="f_car3.1" depart="46.00" departLane="-E1_0" departPos="5.10" departSpeed="0.00" departDelay="0.60" arrival="74.00" arrivalLane="E3_0" arrivalPos="69.07" arrivalSpeed="13.40" duration="28.00" routeLength="205.81" waitingTime="3.00" waitingCount="1" stopTime="0.00" timeLoss="12.12" rerouteNo="1" devices="tripinfo_f_car3.1 routing_f_car3.1" vType="t_car" speedFactor="1.12" vaporized=""/>
    <tripinfo id="f_car1.1" depart="51.00" departLane="-E3_0" departPos="5.10" departSpeed="0.00" departDelay="0.80" arrival="77.00" arrivalLane="E1_0" arrivalPos="69.11" arrivalSpeed="12.46" duration="26.00" routeLength="205.86" waitingTime="0.00" waitingCount="0" stopTime="0.00" timeLoss="7.75" rerouteNo="1" devices="tripinfo_f_car1.1 routing_f_car1.1" vType="t_car" speedFactor="0.93" vaporized=""/>
    <tripinfo id="f_car2.1" depart="48.00" departLane="-E2_0" departPos="5.10" departSpeed="0.00" departDelay="0.33" arrival="82.00" arrivalLane="E0_0" arrivalPos="68.50" arrivalSpeed="12.99" duration="34.00" routeLength="305.21" waitingTime="1.00" waitingCount="1" stopTime="0.00" timeLoss="10.48" rerouteNo="1" devices="tripinfo_f_car2.1 routing_f_car2.1" vType="t_car" speedFactor="0.99" vaporized=""/>
    <tripinfo id="f_car5.1" depart="58.00" departLane="-E3_0" departPos="5.10" departSpeed="0.00" departDelay="0.55" arrival="85.00" arrivalLane="E0_0" arrivalPos="68.50" arrivalSpeed="13.96" duration="27.00" routeLength="239.96" waitingTime="0.00" waitingCount="0" stopTime="0.00" timeLoss="8.00" rerouteNo="1" devices="tripinfo_f_car5.1 routing_f_car5.1" vType="t_car" speedFactor="1.16" vaporized=""/>
    <tripinfo id="f_car10.1" depart="57.00" departLane="-E2_0" departPos="5.10" departSpeed="0.00" departDelay="0.16" arrival="87.00" arrivalLane="E1_0" arrivalPos="69.11" arrivalSpeed="12.28" duration="30.00" routeLength="271.11" waitingTime="0.00" waitingCount="0" stopTime="0.00" timeLoss="6.99" rerouteNo="1" devices="tripinfo_f_car10.1 routing_f_car10.1" vType="t_car" speedFactor="0.94" vaporized=""/>
    <tripinfo id="f_car11.1" depart="66.00" departLane="-E1_0" departPos="5.10" departSpeed="0.00" departDelay="0.44" arrival="88.00" arrivalLane="E0_0" arrivalPos="68.50" arrivalSpeed="13.22" duration="22.00" routeLength="170.49" waitingTime="0.00" waitingCount="0" stopTime="0.00" timeLoss="7.49" rerouteNo="1" devices="tripinfo_f_car11.1 routing_f_car11.1" vType="t_car" speedFactor="0.97" vaporized=""/>
    <tripinfo id="f_car7.1" depart="55.00" departLane="-E1_0" departPos="5.10" departSpeed="0.00" departDelay="0.66" arrival="91.00" arrivalLane="E2_0" arrivalPos="168.56" arrivalSpeed="11.32" duration="36.00" routeLength="339.89" waitingTime="0.00" waitingCount="0" stopTime="0.00" timeLoss="6.60" rerouteNo="1" devices="tripinfo_f_car7.1 routing_f_car7.1" vType="t_car" speedFactor="0.88" vaporized=""/>
    <tripinfo id="f_car8.1" depart="69.00" departLane="-E0_0" departPos="5.10" departSpeed="0.00" departDelay="0.23" arrival="92.00" arrivalLane="E3_0" arrivalPos="69.07" arrivalSpeed="12.26" duration="23.00" routeLength="171.04" waitingTime="0.00" waitingCount="0" stopTime="0.00" timeLoss="7.34" rerouteNo="1" devices="tripinfo_f_car8.1 routing_f_car8.1" vType="t_car" speedFactor="0.89" vaporized=""/>
    <tripinfo id="f_car0.1" depart="57.00" departLane="-E0_0" departPos="5.10" departSpeed="0.00" departDelay="0.65" arrival="95.00" arrivalLane="E2_0" arrivalPos="168.56" arrivalSpeed="12.29" duration="38.00" routeLength="305.12" waitingTime="2.00" waitingCount="1" stopTime="0.00" timeLoss="13.02" rerouteNo="1" devices="tripinfo_f_car0.1 routing_f_car0.1" vType="t_car" speedFactor="0.94" vaporized=""/>
    <tripinfo id="f_car9.1" depart="61.00" departLane="-E3_0" departPos="5.10" departSpeed="0.00" departDelay="3.42" arrival="98.00" arrivalLane="E2_0" arrivalPos="168.56" arrivalSpeed="13.84" duration="37.00" routeLength="270.91" waitingTime="6.00" waitingCount="1" stopTime="0.00" timeLoss="16.38" rerouteNo="1" devices="tripinfo_f_car9.1 routing_f_car9.1" vType="t_car" speedFactor="1.02" vaporized=""/>
    <tripinfo id="f_car6.1" depart="66.00" departLane="-E2_0" departPos="5.10" departSpeed="0.00" departDelay="0.41" arrival="102.00" arrivalLane="E3_0" arrivalPos="69.07" arrivalSpeed="13.50" duration="36.00" routeLength="340.53" waitingTime="0.00" waitingCount="0" stopTime="0.00" timeLoss="9.44" rerouteNo="1" devices="tripinfo_f_car6.1 routing_f_car6.1" vType="t_car" speedFactor="1.01" vaporized=""/>
    <tripinfo id="f_car4.1" depart="72.00" departLane="-E0_0" departPos="5.10" departSpeed="0.00" departDelay="1.67" arrival="103.00" arrivalLane="E1_0" arrivalPos="69.11" arrivalSpeed="10.45" duration="31.00" routeLength="240.07" waitingTime="0.00" waitingCount="0" stopTime="0.00" timeLoss="8.01" rerouteNo="1" devices="tripinfo_f_car4.1 routing_f_car4.1" vType="t_car" speedFactor="0.83" vaporized=""/>
    <tripinfo id="f_car3.2" depart="91.00" departLane="-E1_0" departPos="5.10" departSpeed="0.00" departDelay="0.60" arrival="117.00" arrivalLane="E3_0" arrivalPos="69.07" arrivalSpeed="11.16" duration="26.00" routeLength="205.81" waitingTime="0.00" waitingCount="0" stopTime="0.00" timeLoss="7.22" rerouteNo="1" devices="tripinfo_f_car3.2 routing_f_car3.2" vType="t_car" speedFactor="0.87" vaporized=""/>
    <tripinfo id="f_car1.2" depart="101.00" departLane="-E3_0" departPos="5.10" departSpeed="0.00" departDelay="0.80" arrival="126.00" arrivalLane="E1_0" arrivalPos="69.11" arrivalSpeed="12.33" duration="25.00" routeLength="205.86" waitingTime="0.00" waitingCount="0" stopTime="0.00" timeLoss="7.00" rerouteNo="1" devices="tripinfo_f_car1.2 routing_f_car1.2" vType="t_car" speedFactor="0.95" vaporized=""/>
    <tripinfo id="f_car2.2" depart="96.00" departLane="-E2_0" departPos="5.10" departSpeed="0.00" departDelay="0.96" arrival="142.00" arrivalLane="E0_0" arrivalPos="68.50" arrivalSpeed="12.34" duration="46.00" routeLength="305.21" waitingTime="2.00" waitingCount="2" stopTime="0.00" timeLoss="20.81" rerouteNo="1" devices="tripinfo_f_car2.2 routing_f_car2.2" vType="t_car" speedFactor="0.92" vaporized=""/>
    <tripinfo id="f_car10.2" depart="112.00" departLane="-E2_0" departPos="5.10" departSpeed="0.00" departDelay="0.61" arrival="148.00" arrivalLane="E1_0" arrivalPos="69.11" arrivalSpeed="12.94" duration="36.00" routeLength="271.11" waitingTime="1.00" waitingCount="1" stopTime="0.00" timeLoss="12.58" rerouteNo="1" devices="tripinfo_f_car10.2 routing_f_car10.2" vType="t_car" speedFactor="0.93" vaporized=""/>
    <tripinfo id="f_car7.2" depart="108.00" departLane="-E1_0" departPos="5.10" departSpeed="0.00" departDelay="0.72" arrival="149.00" arrivalLane="E2_0" arrivalPos="168.56" arrivalSpeed="14.00" duration="41.00" routeLength="339.89" waitingTime="1.00" waitingCount="1" stopTime="0.00" timeLoss="15.09" rerouteNo="1" devices="tripinfo_f_car7.2 routing_f_car7.2" vType="t_car" speedFactor="1.13" vaporized=""/>
    <tripinfo id="f_car0.2" depart="113.00" departLane="-E0_0" departPos="5.10" departSpeed="0.00" departDelay="0.40" arrival="151.00" arrivalLane="E2_0" arrivalPos="168.56" arrivalSpeed="14.00" duration="38.00" routeLength="305.12" waitingTime="1.00" waitingCount="1" stopTime="0.00" timeLoss="14.83" rerouteNo="1" devices="tripinfo_f_car0.2 routing_f_car0.2" vType="t_car" speedFactor="1.18" vaporized=""/>
    <tripinfo id="f_car11.2" depart="129.00" departLane="-E1_0" departPos="5.10" departSpeed="0.00" departDelay="0.28" arrival="153.00" arrivalLane="E0_0" arrivalPos="68.50" arrivalSpeed="13.82" duration="24.00" routeLength="170.49" waitingTime="0.00" waitingCount="0" stopTime="0.00" timeLoss="9.58" rerouteNo="1" devices="tripinfo_f_car11.2 routing_f_car11.2" vType="t_car" speedFactor="0.99" vaporized=""/>
    <tripinfo id="f_car8.2" depart="136.00" departLane="-E0_0" departPos="5.10" departSpeed="0.00" departDelay="0.57" arrival="157.00" arrivalLane="E3_0" arrivalPos="69.07" arrivalSpeed="14.00" duration="21.00" routeLength="171.04" waitingTime="0.00" waitingCount="0" stopTime="0.00" timeLoss="6.98" rerouteNo="1" devices="tripinfo_f_car8.2 routing_f_car8.2" vType="t_car" speedFactor="1.18" vaporized=""/>
    <tripinfo id="f_car9.2" depart="113.00" departLane="-E3_0" departPos="5.10" departSpeed="0.00" departDelay="0.03" arrival="158.00" arrivalLane="E2_0" arrivalPos="168.56" arrivalSpeed="14.00" duration="45.00" routeLength="270.91" waitingTime="13.00" waitingCount="1" stopTime="0.00" timeLoss="24.19" rerouteNo="1" devices="tripinfo_f_car9.2 routing_f_car9.2" vType="t_car" speedFactor="1.15" vaporized=""/>
    <tripinfo id="f_car5.2" depart="116.00" departLane="-E3_0" departPos="5.10" departSpeed="0.00" departDelay="2.30" arrival="159.00" arrivalLane="E0_0" arrivalPos="68.50" arrivalSpeed="13.96" duration="43.00" routeLength="239.96" waitingTime="11.00" waitingCount="1" stopTime="0.00" timeLoss="23.86" rerouteNo="1" devices="tripinfo_f_car5.2 routing_f_car5.2" vType="t_car" speedFactor="1.01" vaporized=""/>
    <tripinfo id="f_car3.3" depart="136.00" departLane="-E1_0" departPos="5.10" departSpeed="0.00" departDelay="0.60" arrival="165.00" arrivalLane="E3_0" arrivalPos="69.07" arrivalSpeed="13.52" duration="29.00" routeLength="205.81" waitingTime="4.00" waitingCount="1" stopTime="0.00" timeLoss="11.27" rerouteNo="1" devices="tripinfo_f_car3.3 routing_f_car3.3" vType="t_car" speedFactor="0.97" vaporized=""/>
    <tripinfo id="f_vip.1" depart="125.00" departLane="-E3_0" departPos="5.10" departSpeed="0.00" departDelay="0.00" arrival="169.00" arrivalLane="E1_0" arrivalPos="69.11" arrivalSpeed="5.95" duration="44.00" routeLength="205.86" waitingTime="2.00" waitingCount="1" stopTime="0.00" timeLoss="9.07" rerouteNo="1" devices="tripinfo_f_vip.1 routing_f_vip.1" vType="t_vip" speedFactor="1.17" vaporized=""/>
    <tripinfo id="f_car4.2" depart="140.00" departLane="-E0_0" departPos="5.10" departSpeed="0.00" departDelay="0.44" arrival="171.00" arrivalLane="E1_0" arrivalPos="69.11" arrivalSpeed="8.98" duration="31.00" routeLength="240.07" waitingTime="0.00" waitingCount="0" stopTime="0.00" timeLoss="12.28" rerouteNo="1" devices="tripinfo_f_car4.2 routing_f_car4.2" vType="t_car" speedFactor="1.10" vaporized=""/>
    <tripinfo id="f_car6.2" depart="130.00" departLane="-E2_0" departPos="5.10" departSpeed="0.00" departDelay="0.13" arrival="175.00" arrivalLane="E3_0" arrivalPos="69.07" arrivalSpeed="14.00" duration="45.00" routeLength="340.53" waitingTime="10.00" waitingCount="1" stopTime="0.00" timeLoss="17.89" rerouteNo="1" devices="tripinfo_f_car6.2 routing_f_car6.2" vType="t_car" speedFactor="1.02" vaporized=""/>
    <tripinfo id="f_car1.3" depart="151.00" departLane="-E3_0" departPos="5.10" departSpeed="0.00" departDelay="0.80" arrival="175.00" arrivalLane="E1_0" arrivalPos="69.11" arrivalSpeed="13.88" duration="24.00" routeLength="205.86" waitingTime="0.00" waitingCount="0" stopTime="0.00" timeLoss="7.41" rerouteNo="1" devices="tripinfo_f_car1.3 routing_f_car1.3" vType="t_car" speedFactor="1.03" vaporized=""/>
    <tripinfo id="f_car2.3" depart="143.00" departLane="-E2_0" departPos="5.10" departSpeed="0.00" departDelay="0.60" arrival="183.00" arrivalLane="E0_0" arrivalPos="68.50" arrivalSpeed="12.22" duration="40.00" routeLength="305.21" waitingTime="2.00" waitingCount="1" stopTime="0.00" timeLoss="13.39" rerouteNo="1" devices="tripinfo_f_car2.3 routing_f_car2.3" vType="t_car" speedFactor="0.90" vaporized=""/>
    <tripinfo id="f_car10.3" depart="166.00" departLane="-E2_0" departPos="5.10" departSpeed="0.00" departDelay="0.07" arrival="194.00" arrivalLane="E1_0" arrivalPos="69.11" arrivalSpeed="13.14" duration="28.00" routeLength="271.11" waitingTime="0.00" waitingCount="0" stopTime="0.00" timeLoss="7.09" rerouteNo="1" devices="tripinfo_f_car10.3 routing_f_car10.3" vType="t_car" speedFactor="1.09" vaporized=""/>
    <tripinfo id="f_car7.3" depart="161.00" departLane="-E1_0" departPos="5.10" departSpeed="0.00" departDelay="0.78" arrival="199.00" arrivalLane="E2_0" arrivalPos="168.56" arrivalSpeed="12.74" duration="38.00" routeLength="339.89" waitingTime="0.00" waitingCount="0" stopTime="0.00" timeLoss="11.40" rerouteNo="1" devices="tripinfo_f_car7.3 routing_f_car7.3" vType="t_car" speedFactor="0.96" vaporized=""/>
    <tripinfo id="f_car0.3" depart="169.00" departLane="-E0_0" departPos="5.10" departSpeed="0.00" departDelay="0.15" arrival="202.00" arrivalLane="E2_0" arrivalPos="168.56" arrivalSpeed="13.60" duration="33.00" routeLength="305.12" waitingTime="0.00" waitingCount="0" stopTime="0.00" timeLoss="10.32" rerouteNo="1" devices="tripinfo_f_car0.3 routing_f_car0.3" vType="t_car" speedFactor="1.04" vaporized=""/>
    <tripinfo id="f_car9.3" depart="169.00" departLane="-E3_0" departPos="5.10" departSpeed="0.00" departDelay="0.65" arrival="206.00" arrivalLane="E2_0" arrivalPos="168.56" arrivalSpeed="12.70" duration="37.00" routeLength="270.91" waitingTime="6.00" waitingCount="1" stopTime="0.00" timeLoss="16.67" rerouteNo="1" devices="tripinfo_f_car9.3 routing_f_car9.3" vType="t_car" speedFactor="1.04" vaporized=""/>
    <tripinfo id="f_car3.4" depart="181.00" departLane="-E1_0" departPos="5.10" departSpeed="0.00" departDelay="0.60" arrival="206.00" arrivalLane="E3_0" arrivalPos="69.07" arrivalSpeed="13.63" duration="25.00" routeLength="205.81" waitingTime="0.00" waitingCount="0" stopTime="0.00" timeLoss="7.82" rerouteNo="1" devices="tripinfo_f_car3.4 routing_f_car3.4" vType="t_car" speedFactor="1.00" vaporized=""/>
    <tripinfo id="f_car5.3" depart="172.00" departLane="-E3_0" departPos="5.10" departSpeed="0.00" departDelay="2.05" arrival="207.00" arrivalLane="E0_0" arrivalPos="68.50" arrivalSpeed="12.84" duration="35.00" routeLength="239.96" waitingTime="5.00" waitingCount="1" stopTime="0.00" timeLoss="16.77" rerouteNo="1" devices="tripinfo_f_car5.3 routing_f_car5.3" vType="t_car" speedFactor="1.09" vaporized=""/>
    <tripinfo id="f_car11.3" depart="192.00" departLane="-E1_0" departPos="5.10" departSpeed="0.00" departDelay="0.13" arrival="215.00" arrivalLane="E0_0" arrivalPos="68.50" arrivalSpeed="11.05" duration="23.00" routeLength="170.49" waitingTime="0.00" waitingCount="0" stopTime="0.00" timeLoss="6.44" rerouteNo="1" devices="tripinfo_f_car11.3 routing_f_car11.3" vType="t_car" speedFactor="0.88" vaporized=""/>
    <tripinfo id="f_car2.4" depart="190.00" departLane="-E2_0" departPos="5.10" departSpeed="0.00" departDelay="0.23" arrival="223.00" arrivalLane="E0_0" arrivalPos="68.50" arrivalSpeed="11.35" duration="33.00" routeLength="305.21" waitingTime="0.00" waitingCount="0" stopTime="0.00" timeLoss="6.82" rerouteNo="1" devices="tripinfo_f_car2.4 routing_f_car2.4" vType="t_car" speedFactor="0.90" vaporized=""/>
    <tripinfo id="f_car8.3" depart="203.00" departLane="-E0_0" departPos="5.10" departSpeed="0.00" departDelay="0.90" arrival="223.00" arrivalLane="E3_0" arrivalPos="69.07" arrivalSpeed="13.42" duration="20.00" routeLength="171.04" waitingTime="0.00" waitingCount="0" stopTime="0.00" timeLoss="6.58" rerouteNo="1" devices="tripinfo_f_car8.3 routing_f_car8.3" vType="t_car" speedFactor="1.17" vaporized=""/>
    <tripinfo id="f_car1.4" depart="201.00" departLane="-E3_0" departPos="5.10" departSpeed="0.00" departDelay="0.80" arrival="226.00" arrivalLane="E1_0" arrivalPos="69.11" arrivalSpeed="10.80" duration="25.00" routeLength="205.86" waitingTime="0.00" waitingCount="0" stopTime="0.00" timeLoss="6.62" rerouteNo="1" devices="tripinfo_f_car1.4 routing_f_car1.4" vType="t_car" speedFactor="0.85" vaporized=""/>
    <tripinfo id="f_car4.3" depart="209.00" departLane="-E0_0" departPos="5.10" departSpeed="0.00" departDelay="0.21" arrival="235.00" arrivalLane="E1_0" arrivalPos="69.11" arrivalSpeed="13.36" duration="26.00" routeLength="240.07" waitingTime="0.00" waitingCount="0" stopTime="0.00" timeLoss="7.63" rerouteNo="1" devices="tripinfo_f_car4.3 routing_f_car4.3" vType="t_car" speedFactor="1.02" vaporized=""/>
    <tripinfo id="f_car6.3" depart="195.00" departLane="-E2_0" departPos="5.10" departSpeed="0.00" departDelay="0.84" arrival="236.00" arrivalLane="E3_0" arrivalPos="69.07" arrivalSpeed="11.36" duration="41.00" routeLength="340.53" waitingTime="0.00" waitingCount="0" stopTime="0.00" timeLoss="11.15" rerouteNo="1" devices="tripinfo_f_car6.3 routing_f_car6.3" vType="t_car" speedFactor="0.85" vaporized=""/>
    <tripinfo id="f_car7.4" depart="214.00" departLane="-E1_0" departPos="5.10" departSpeed="0.00" departDelay="0.84" arrival="249.00" arrivalLane="E2_0" arrivalPos="168.56" arrivalSpeed="12.89" duration="35.00" routeLength="339.89" waitingTime="0.00" waitingCount="0" stopTime="0.00" timeLoss="8.69" rerouteNo="1" devices="tripinfo_f_car7.4 routing_f_car7.4" vType="t_car" speedFactor="1.10" vaporized=""/>
    <tripinfo id="f_car10.4" depart="221.00" departLane="-E2_0" departPos="5.10" departSpeed="0.00" departDelay="0.52" arrival="249.00" arrivalLane="E1_0" arrivalPos="69.11" arrivalSpeed="13.39" duration="28.00" routeLength="271.11" waitingTime="0.00" waitingCount="0" stopTime="0.00" timeLoss="6.57" rerouteNo="1" devices="tripinfo_f_car10.4 routing_f_car10.4" vType="t_car" speedFactor="1.00" vaporized=""/>
    <tripinfo id="f_car3.5" depart="226.00" departLane="-E1_0" departPos="5.10" departSpeed="0.00" departDelay="0.60" arrival="249.00" arrivalLane="E3_0" arrivalPos="69.07" arrivalSpeed="13.52" duration="23.00" routeLength="205.81" waitingTime="0.00" waitingCount="0" stopTime="0.00" timeLoss="6.96" rerouteNo="1" devices="tripinfo_f_car3.5 routing_f_car3.5" vType="t_car" speedFactor="1.14" vaporized=""/>
    <tripinfo id="f_car9.4" depart="224.00" departLane="-E3_0" departPos="5.10" departSpeed="0.00" departDelay="0.26" arrival="253.00" arrivalLane="E2_0" arrivalPos="168.56" arrivalSpeed="13.51" duration="29.00" routeLength="270.91" waitingTime="0.00" waitingCount="0" stopTime="0.00" timeLoss="7.49" rerouteNo="1" devices="tripinfo_f_car9.4 routing_f_car9.4" vType="t_car" speedFactor="1.00" vaporized=""/>
    <tripinfo id="f_car5.4" depart="227.00" departLane="-E3_0" departPos="5.10" departSpeed="0.00" departDelay="0.80" arrival="262.00" arrivalLane="E0_0" arrivalPos="68.50" arrivalSpeed="14.00" duration="35.00" routeLength="239.96" waitingTime="1.00" waitingCount="1" stopTime="0.00" timeLoss="15.40" rerouteNo="1" devices="tripinfo_f_car5.4 routing_f_car5.4" vType="t_car" speedFactor="1.02" vaporized=""/>
    <tripinfo id="f_car0.4" depart="226.00" departLane="-E0_0" departPos="5.10" departSpeed="0.00" departDelay="0.90" arrival="269.00" arrivalLane="E2_0" arrivalPos="168.56" arrivalSpeed="12.49" duration="43.00" routeLength="305.12" waitingTime="1.00" waitingCount="1" stopTime="0.00" timeLoss="16.46" rerouteNo="1" devices="tripinfo_f_car0.4 routing_f_car0.4" vType="t_car" speedFactor="0.90" vaporized=""/>
    <tripinfo id="f_car2.5" depart="238.00" departLane="-E2_0" departPos="5.10" departSpeed="0.00" departDelay="0.86" arrival="272.00" arrivalLane="E0_0" arrivalPos="68.50" arrivalSpeed="13.47" duration="34.00" routeLength="305.21" waitingTime="0.00" waitingCount="0" stopTime="0.00" timeLoss="9.81" rerouteNo="1" devices="tripinfo_f_car2.5 routing_f_car2.5" vType="t_car" speedFactor="0.97" vaporized=""/>
    <tripinfo id="f_car11.4" depart="256.00" departLane="-E1_0" departPos="5.10" departSpeed="0.00" departDelay="0.97" arrival="275.00" arrivalLane="E0_0" arrivalPos="68.50" arrivalSpeed="14.00" duration="19.00" routeLength="170.49" waitingTime="0.00" waitingCount="0" stopTime="0.00" timeLoss="5.78" rerouteNo="1" devices="tripinfo_f_car11.4 routing_f_car11.4" vType="t_car" speedFactor="1.02" vaporized=""/>
    <tripinfo id="f_vip.2" depart="245.00" departLane="-E3_0" departPos="5.10" departSpeed="0.00" departDelay="0.00" arrival="285.00" arrivalLane="E1_0" arrivalPos="69.11" arrivalSpeed="5.60" duration="40.00" routeLength="205.86" waitingTime="0.00" waitingCount="0" stopTime="0.00" timeLoss="5.21" rerouteNo="1" devices="tripinfo_f_vip.2 routing_f_vip.2" vType="t_vip" speedFactor="1.08" vaporized=""/>
    <tripinfo id="f_car1.5" depart="251.00" departLane="-E3_0" departPos="5.10" departSpeed="0.00" departDelay="0.80" arrival="287.00" arrivalLane="E1_0" arrivalPos="69.11" arrivalSpeed="10.70" duration="36.00" routeLength="205.86" waitingTime="0.00" waitingCount="0" stopTime="0.00" timeLoss="19.38" rerouteNo="1" devices="tripinfo_f_car1.5 routing_f_car1.5" vType="t_car" speedFactor="1.12" vaporized=""/>
    <tripinfo id="f_car6.4" depart="259.00" departLane="-E2_0" departPos="5.10" departSpeed="0.00" departDelay="0.56" arrival="295.00" arrivalLane="E3_0" arrivalPos="69.07" arrivalSpeed="13.49" duration="36.00" routeLength="340.53" waitingTime="0.00" waitingCount="0" stopTime="0.00" timeLoss="8.35" rerouteNo="1" devices="tripinfo_f_car6.4 routing_f_car6.4" vType="t_car" speedFactor="0.99" vaporized=""/>
    <tripinfo id="f_car3.6" depart="271.00" departLane="-E1_0" departPos="5.10" departSpeed="0.00" departDelay="0.60" arrival="299.00" arrivalLane="E3_0" arrivalPos="69.07" arrivalSpeed="11.61" duration="28.00" routeLength="205.81" waitingTime="0.00" waitingCount="0" stopTime="0.00" timeLoss="9.42" rerouteNo="1" devices="tripinfo_f_car3.6 routing_f_car3.6" vType="t_car" speedFactor="0.91" vaporized=""/>
    <tripinfo id="f_car7.5" depart="267.00" departLane="-E1_0" departPos="5.10" departSpeed="0.00" departDelay="0.90" arrival="302.00" arrivalLane="E2_0" arrivalPos="168.56" arrivalSpeed="12.79" duration="35.00" routeLength="339.89" waitingTime="0.00" waitingCount="0" stopTime="0.00" timeLoss="7.11" rerouteNo="1" devices="tripinfo_f_car7.5 routing_f_car7.5" vType="t_car" speedFactor="0.94" vaporized=""/>
    <tripinfo id="f_car8.4" depart="269.00" departLane="-E0_0" departPos="5.10" departSpeed="0.00" departDelay="0.23" arrival="302.00" arrivalLane="E3_0" arrivalPos="69.07" arrivalSpeed="11.82" duration="33.00" routeLength="171.04" waitingTime="9.00" waitingCount="1" stopTime="0.00" timeLoss="17.62" rerouteNo="1" devices="tripinfo_f_car8.4 routing_f_car8.4" vType="t_car" speedFactor="0.88" vaporized=""/>
    <tripinfo id="f_car9.5" depart="280.00" departLane="-E3_0" departPos="5.10" departSpeed="0.00" departDelay="0.88" arrival="307.00" arrivalLane="E2_0" arrivalPos="168.56" arrivalSpeed="13.35" duration="27.00" routeLength="270.91" waitingTime="0.00" waitingCount="0" stopTime="0.00" timeLoss="6.20" rerouteNo="1" devices="tripinfo_f_car9.5 routing_f_car9.5" vType="t_car" speedFactor="1.02" vaporized=""/>
    <tripinfo id="f_car4.4" depart="279.00" departLane="-E0_0" departPos="5.10" departSpeed="0.00" departDelay="0.98" arrival="310.00" arrivalLane="E1_0" arrivalPos="69.11" arrivalSpeed="13.15" duration="31.00" routeLength="240.07" waitingTime="0.00" waitingCount="0" stopTime="0.00" timeLoss="12.74" rerouteNo="1" devices="tripinfo_f_car4.4 routing_f_car4.4" vType="t_car" speedFactor="1.04" vaporized=""/>
    <tripinfo id="f_car5.5" depart="283.00" departLane="-E3_0" departPos="5.10" departSpeed="0.00" departDelay="0.55" arrival="310.00" arrivalLane="E0_0" arrivalPos="68.50" arrivalSpeed="13.30" duration="27.00" routeLength="239.96" waitingTime="0.00" waitingCount="0" stopTime="0.00" timeLoss="8.17" rerouteNo="1" devices="tripinfo_f_car5.5 routing_f_car5.5" vType="t_car" speedFactor="0.97" vaporized=""/>
    <tripinfo id="f_car10.5" depart="276.00" departLane="-E2_0" departPos="5.10" departSpeed="0.00" departDelay="0.98" arrival="315.00" arrivalLane="E1_0" arrivalPos="69.11" arrivalSpeed="12.07" duration="39.00" routeLength="271.11" waitingTime="6.00" waitingCount="1" stopTime="0.00" timeLoss="16.15" rerouteNo="1" devices="tripinfo_f_car10.5 routing_f_car10.5" vType="t_car" speedFactor="0.91" vaporized=""/>